LAMMPS data file via write_data, version 3 Mar 2020, timestep = 1000

2432 atoms
2 atom types

-3.9006362984379528e+01 4.3344360484379528e+01 xlo xhi
-3.7533609150731806e+01 4.2542710950745985e+01 ylo yhi
-3.2057278850357676e+01 4.5329282050343650e+01 zlo zhi
0.0000000000000000e+00 0.0000000000000000e+00 0.0000000000000000e+00 xy xz yz

Masses

1 10.811
2 14.0067

Atoms # full

1 1 1 2.5000000000000000e-01 -38.80949620027324 -37.332366523708345 -31.091859124923737 0 0 0
2 1 2 -2.5000000000000000e-01 -38.08663725150867 -36.080547018952764 -31.09862594598962 0 0 0
3 1 1 2.5000000000000000e-01 -36.640103993453494 -36.083451745623904 -31.09179640609681 0 0 0
4 1 2 -2.5000000000000000e-01 -35.918618862139006 -37.33592970411648 -31.09210782204952 0 0 0
5 1 1 2.5000000000000000e-01 -38.80802105921772 -34.83044738180081 -31.098786362073646 0 0 0
6 1 2 -2.5000000000000000e-01 -38.08390303955659 -33.583245105350116 -31.104789991695036 0 0 0
7 1 1 2.5000000000000000e-01 -36.63917586610062 -33.580718984833865 -31.103997701994263 0 0 0
8 1 2 -2.5000000000000000e-01 -35.9158954957828 -34.83090632679431 -31.094560944302586 0 0 0
9 1 1 2.5000000000000000e-01 -38.806393711846745 -32.33174676934584 -31.10154563549257 0 0 0
10 1 2 -2.5000000000000000e-01 -38.0825551682626 -31.08284948031954 -31.101160183693267 0 0 0
11 1 1 2.5000000000000000e-01 -36.63756537712566 -31.077628332324053 -31.09868523938123 0 0 0
12 1 2 -2.5000000000000000e-01 -35.91618983151641 -32.32792369253112 -31.093262507867134 0 0 0
13 1 1 2.5000000000000000e-01 -38.80407919925923 -29.829289255427607 -31.096238508699336 0 0 0
14 1 2 -2.5000000000000000e-01 -38.08293363740703 -28.576215859255154 -31.084893926696967 0 0 0
15 1 1 2.5000000000000000e-01 -36.635893149231165 -28.576390820572747 -31.081873677744174 0 0 0
16 1 2 -2.5000000000000000e-01 -35.914923786329126 -29.82753925877475 -31.090811430041864 0 0 0
17 1 1 2.5000000000000000e-01 -38.80414242990997 -27.322128739401386 -31.092377377208518 0 0 0
18 1 2 -2.5000000000000000e-01 -38.077326025918374 -26.07446537907447 -31.089916908836308 0 0 0
19 1 1 2.5000000000000000e-01 -36.633052959587005 -26.072149798274594 -31.088035421096897 0 0 0
20 1 2 -2.5000000000000000e-01 -35.91308661311906 -27.324199726784272 -31.08592658442842 0 0 0
21 1 1 2.5000000000000000e-01 -38.800424496747844 -24.82314088161541 -31.087858137806663 0 0 0
22 1 2 -2.5000000000000000e-01 -38.08025932419399 -23.571659615305947 -31.080841939388183 0 0 0
23 1 1 2.5000000000000000e-01 -36.63615167616752 -23.571526722058316 -31.083326081340218 0 0 0
24 1 2 -2.5000000000000000e-01 -35.91318715459269 -24.82112523999765 -31.083777355705056 0 0 0
25 1 1 2.5000000000000000e-01 -38.80362588955948 -22.31810096886678 -31.089694563910882 0 0 0
26 1 2 -2.5000000000000000e-01 -38.07990294250744 -21.068920530056676 -31.090776248005316 0 0 0
27 1 1 2.5000000000000000e-01 -36.63488693169579 -21.070085338705095 -31.090217301427955 0 0 0
28 1 2 -2.5000000000000000e-01 -35.91121101958946 -22.321546107706922 -31.092298169471913 0 0 0
29 1 1 2.5000000000000000e-01 -38.80157586501477 -19.81912374146251 -31.093067959467373 0 0 0
30 1 2 -2.5000000000000000e-01 -38.07963598110017 -18.566717284242262 -31.093682056429092 0 0 0
31 1 1 2.5000000000000000e-01 -36.63306480732972 -18.565478692632325 -31.09563917539001 0 0 0
32 1 2 -2.5000000000000000e-01 -35.91234983650676 -19.816222137751613 -31.088508138561878 0 0 0
33 1 1 2.5000000000000000e-01 -34.47343146955914 -37.3334598507602 -31.09509108355593 0 0 0
34 1 2 -2.5000000000000000e-01 -33.749192659471 -36.084031343908784 -31.085601039488314 0 0 0
35 1 1 2.5000000000000000e-01 -32.30346357613445 -36.0831092040942 -31.095588793887487 0 0 0
36 1 2 -2.5000000000000000e-01 -31.579533051925452 -37.335015272676614 -31.096928925863597 0 0 0
37 1 1 2.5000000000000000e-01 -34.470066869024784 -34.83320563530575 -31.0879092337186 0 0 0
38 1 2 -2.5000000000000000e-01 -33.74696336341942 -33.58026703825332 -31.087471308836673 0 0 0
39 1 1 2.5000000000000000e-01 -32.303111884918096 -33.58060506500123 -31.092087856836194 0 0 0
40 1 2 -2.5000000000000000e-01 -31.581743509267767 -34.83236723361785 -31.100413607969134 0 0 0
41 1 1 2.5000000000000000e-01 -34.47100497467805 -32.32775294533915 -31.086118217573137 0 0 0
42 1 2 -2.5000000000000000e-01 -33.74656482168804 -31.07801397022396 -31.091117832333083 0 0 0
43 1 1 2.5000000000000000e-01 -32.30066965526286 -31.07345128612303 -31.091132737739894 0 0 0
44 1 2 -2.5000000000000000e-01 -31.58235950414187 -32.32724491628711 -31.092166470562553 0 0 0
45 1 1 2.5000000000000000e-01 -34.47035689243941 -29.82638902735834 -31.093331115579595 0 0 0
46 1 2 -2.5000000000000000e-01 -33.74742394803714 -28.574393033962032 -31.092148076253363 0 0 0
47 1 1 2.5000000000000000e-01 -32.30049638385117 -28.57409281410122 -31.089035316138954 0 0 0
48 1 2 -2.5000000000000000e-01 -31.580735768186685 -29.824681572859816 -31.095421306336686 0 0 0
49 1 1 2.5000000000000000e-01 -34.467146694786535 -27.322807912874495 -31.089720046461547 0 0 0
50 1 2 -2.5000000000000000e-01 -33.748379992323095 -26.071192775501565 -31.097193863006048 0 0 0
51 1 1 2.5000000000000000e-01 -32.3029505662068 -26.071479509137923 -31.092635085127302 0 0 0
52 1 2 -2.5000000000000000e-01 -31.578673105776716 -27.322212749763153 -31.08793178313514 0 0 0
53 1 1 2.5000000000000000e-01 -34.46949674910413 -24.820965412550727 -31.090358533402338 0 0 0
54 1 2 -2.5000000000000000e-01 -33.7447070579087 -23.567449790541303 -31.091102552768287 0 0 0
55 1 1 2.5000000000000000e-01 -32.30041079294378 -23.57027686359458 -31.083361851820797 0 0 0
56 1 2 -2.5000000000000000e-01 -31.57948196673339 -24.820021578015393 -31.09361758220182 0 0 0
57 1 1 2.5000000000000000e-01 -34.467820313415466 -22.31775491984763 -31.088162821854347 0 0 0
58 1 2 -2.5000000000000000e-01 -33.74558711389881 -21.068534927405192 -31.081706169610687 0 0 0
59 1 1 2.5000000000000000e-01 -32.300264903854234 -21.069151500462887 -31.073069262821736 0 0 0
60 1 2 -2.5000000000000000e-01 -31.57651815793972 -22.32164345986741 -31.079157781953004 0 0 0
61 1 1 2.5000000000000000e-01 -34.46844983552951 -19.817754584293482 -31.08228105265631 0 0 0
62 1 2 -2.5000000000000000e-01 -33.74752129569235 -18.567939729718017 -31.083917728709753 0 0 0
63 1 1 2.5000000000000000e-01 -32.30203550045404 -18.568060100584344 -31.082968106085744 0 0 0
64 1 2 -2.5000000000000000e-01 -31.577459359538054 -19.81729216049035 -31.078798284440985 0 0 0
65 1 1 2.5000000000000000e-01 -30.13349514017306 -37.334068110427594 -31.098251004189276 0 0 0
66 1 2 -2.5000000000000000e-01 -29.411686126110748 -36.08407550126075 -31.09886440853324 0 0 0
67 1 1 2.5000000000000000e-01 -27.96723162583818 -36.08455034760801 -31.08987893785532 0 0 0
68 1 2 -2.5000000000000000e-01 -27.24498050288043 -37.336783422583245 -31.095834113458118 0 0 0
69 1 1 2.5000000000000000e-01 -30.135502383386985 -34.834499650096625 -31.099002596326887 0 0 0
70 1 2 -2.5000000000000000e-01 -29.41564014348296 -33.58267942069047 -31.097500356197617 0 0 0
71 1 1 2.5000000000000000e-01 -27.97032094906765 -33.581350503052455 -31.096019285411256 0 0 0
72 1 2 -2.5000000000000000e-01 -27.24566806825856 -34.83249965674855 -31.09255367028108 0 0 0
73 1 1 2.5000000000000000e-01 -30.137893576727926 -32.32836504233296 -31.09096489091046 0 0 0
74 1 2 -2.5000000000000000e-01 -29.413534020885095 -31.077018140466613 -31.08802662277029 0 0 0
75 1 1 2.5000000000000000e-01 -27.968972522217197 -31.080007324651213 -31.090161970597205 0 0 0
76 1 2 -2.5000000000000000e-01 -27.24805425002537 -32.331636502407484 -31.09310826455112 0 0 0
77 1 1 2.5000000000000000e-01 -30.136510990936703 -29.82508970037553 -31.09149706586395 0 0 0
78 1 2 -2.5000000000000000e-01 -29.412204500095687 -28.57491099056464 -31.090813828590022 0 0 0
79 1 1 2.5000000000000000e-01 -27.96907920803595 -28.577967979069193 -31.092297939618096 0 0 0
80 1 2 -2.5000000000000000e-01 -27.24707552100144 -29.82895118188754 -31.088613373426032 0 0 0
81 1 1 2.5000000000000000e-01 -30.13349965816143 -27.32210890646015 -31.08598852355075 0 0 0
82 1 2 -2.5000000000000000e-01 -29.411785731834343 -26.070382048140203 -31.088892903675443 0 0 0
83 1 1 2.5000000000000000e-01 -27.96710925003118 -26.072218234106803 -31.0900993783493 0 0 0
84 1 2 -2.5000000000000000e-01 -27.248122857458156 -27.324393734171306 -31.095126447541997 0 0 0
85 1 1 2.5000000000000000e-01 -30.134970955319773 -24.820039530809186 -31.08750000126258 0 0 0
86 1 2 -2.5000000000000000e-01 -29.411423013677144 -23.567430603577392 -31.086072164380443 0 0 0
87 1 1 2.5000000000000000e-01 -27.96571991113305 -23.56778852756372 -31.087129478615804 0 0 0
88 1 2 -2.5000000000000000e-01 -27.242819570626445 -24.821704529132134 -31.082819871075174 0 0 0
89 1 1 2.5000000000000000e-01 -30.133730719032663 -22.31873149694021 -31.07922342175605 0 0 0
90 1 2 -2.5000000000000000e-01 -29.41202510720113 -21.067954566044612 -31.08003957137317 0 0 0
91 1 1 2.5000000000000000e-01 -27.966956098408303 -21.069168314620637 -31.085669561826787 0 0 0
92 1 2 -2.5000000000000000e-01 -27.24424941161176 -22.319174673400425 -31.089177248875604 0 0 0
93 1 1 2.5000000000000000e-01 -30.133254940959276 -19.815365648338123 -31.079798650090684 0 0 0
94 1 2 -2.5000000000000000e-01 -29.411034796222346 -18.565274083701524 -31.08560379141161 0 0 0
95 1 1 2.5000000000000000e-01 -27.96554209770278 -18.564389554209715 -31.07643287882062 0 0 0
96 1 2 -2.5000000000000000e-01 -27.242539130423744 -19.816477564641268 -31.08137874947253 0 0 0
97 1 1 2.5000000000000000e-01 -25.800565371267624 -37.335458462395295 -31.095675023957043 0 0 0
98 1 2 -2.5000000000000000e-01 -25.07789624093266 -36.08423069262917 -31.094449480993546 0 0 0
99 1 1 2.5000000000000000e-01 -23.632492908532427 -36.08447722093041 -31.098294352796614 0 0 0
100 1 2 -2.5000000000000000e-01 -22.909950839794632 -37.334831452529734 -31.099192605020164 0 0 0
101 1 1 2.5000000000000000e-01 -25.79943136911608 -34.83195719513419 -31.084394185122058 0 0 0
102 1 2 -2.5000000000000000e-01 -25.079304537782313 -33.58382300457482 -31.091724820313726 0 0 0
103 1 1 2.5000000000000000e-01 -23.6322395211241 -33.580008474912304 -31.09057399904847 0 0 0
104 1 2 -2.5000000000000000e-01 -22.910761775231915 -34.830729817742835 -31.093348151057114 0 0 0
105 1 1 2.5000000000000000e-01 -25.802615976782576 -32.33275733067442 -31.092207551186544 0 0 0
106 1 2 -2.5000000000000000e-01 -25.079960690059877 -31.07894614519864 -31.087603978564257 0 0 0
107 1 1 2.5000000000000000e-01 -23.63594678267438 -31.07781740990952 -31.086483169261804 0 0 0
108 1 2 -2.5000000000000000e-01 -22.913129390633927 -32.327389855091184 -31.08952028831731 0 0 0
109 1 1 2.5000000000000000e-01 -25.802066349765326 -29.82615843114806 -31.091894026214725 0 0 0
110 1 2 -2.5000000000000000e-01 -25.077585641684564 -28.575413865964798 -31.094161374958492 0 0 0
111 1 1 2.5000000000000000e-01 -23.635771186903163 -28.57640680388777 -31.091977203988453 0 0 0
112 1 2 -2.5000000000000000e-01 -22.912933261175453 -29.825391519561467 -31.08928620617313 0 0 0
113 1 1 2.5000000000000000e-01 -25.801351351196146 -27.324281029508896 -31.100056071546046 0 0 0
114 1 2 -2.5000000000000000e-01 -25.07693956158671 -26.074709797859935 -31.099433368156948 0 0 0
115 1 1 2.5000000000000000e-01 -23.632394713613564 -26.070085270603016 -31.09786616604391 0 0 0
116 1 2 -2.5000000000000000e-01 -22.914334847260445 -27.32229987804127 -31.098032217938105 0 0 0
117 1 1 2.5000000000000000e-01 -25.79930642308277 -24.821763671161015 -31.09206037687173 0 0 0
118 1 2 -2.5000000000000000e-01 -25.075256667801668 -23.57006293653133 -31.093255835693586 0 0 0
119 1 1 2.5000000000000000e-01 -23.629992864822775 -23.566975862736527 -31.09252692566539 0 0 0
120 1 2 -2.5000000000000000e-01 -22.90944925604219 -24.81810285752458 -31.0934488752812 0 0 0
121 1 1 2.5000000000000000e-01 -25.799170510168 -22.317862487551835 -31.100286864075148 0 0 0
122 1 2 -2.5000000000000000e-01 -25.075565658480635 -21.06627819674568 -31.09053053253864 0 0 0
123 1 1 2.5000000000000000e-01 -23.629828995266287 -21.066068427752267 -31.09170787054402 0 0 0
124 1 2 -2.5000000000000000e-01 -22.909637901755943 -22.31753282836569 -31.08826666550269 0 0 0
125 1 1 2.5000000000000000e-01 -25.79956184583466 -19.816458727306518 -31.08051319416445 0 0 0
126 1 2 -2.5000000000000000e-01 -25.07588408035053 -18.56575349241435 -31.080622069181434 0 0 0
127 1 1 2.5000000000000000e-01 -23.629332356117324 -18.564206040366432 -31.08306006090558 0 0 0
128 1 2 -2.5000000000000000e-01 -22.907752409876135 -19.81510492970416 -31.08530524038337 0 0 0
129 1 1 2.5000000000000000e-01 -38.801036908115584 -17.314699301043262 -31.086006301899825 0 0 0
130 1 2 -2.5000000000000000e-01 -38.079629143914545 -16.063503358179815 -31.08393713643169 0 0 0
131 1 1 2.5000000000000000e-01 -36.63636957178754 -16.062234539264388 -31.089653925737753 0 0 0
132 1 2 -2.5000000000000000e-01 -35.91518045080984 -17.312213495738714 -31.09474212993549 0 0 0
133 1 1 2.5000000000000000e-01 -38.80301934599028 -14.813554083793061 -31.0895168007551 0 0 0
134 1 2 -2.5000000000000000e-01 -38.08208357011477 -13.56211071226404 -31.082523561678865 0 0 0
135 1 1 2.5000000000000000e-01 -36.6369363284673 -13.561840778624195 -31.08489743056516 0 0 0
136 1 2 -2.5000000000000000e-01 -35.915433848952695 -14.811420544102276 -31.09234220594538 0 0 0
137 1 1 2.5000000000000000e-01 -38.80515209693314 -12.31103401354057 -31.082160605576867 0 0 0
138 1 2 -2.5000000000000000e-01 -38.08413353976099 -11.05897964730216 -31.0850788307447 0 0 0
139 1 1 2.5000000000000000e-01 -36.63812012490309 -11.058914303305954 -31.08974770593965 0 0 0
140 1 2 -2.5000000000000000e-01 -35.91359204229629 -12.313043122855753 -31.088660118627285 0 0 0
141 1 1 2.5000000000000000e-01 -38.8065834552968 -9.807912180868765 -31.0889248257705 0 0 0
142 1 2 -2.5000000000000000e-01 -38.08238584526364 -8.55787201414378 -31.08135626267889 0 0 0
143 1 1 2.5000000000000000e-01 -36.63784667855265 -8.560092269983876 -31.08594419475796 0 0 0
144 1 2 -2.5000000000000000e-01 -35.91432713023818 -9.81114871033661 -31.0866583252169 0 0 0
145 1 1 2.5000000000000000e-01 -38.804172300671254 -7.305445534706685 -31.080491274183743 0 0 0
146 1 2 -2.5000000000000000e-01 -38.080861991749714 -6.057482677036074 -31.08714005542982 0 0 0
147 1 1 2.5000000000000000e-01 -36.6362809691256 -6.058508097037048 -31.08916643214593 0 0 0
148 1 2 -2.5000000000000000e-01 -35.9109328956759 -7.309704926259528 -31.092759490285303 0 0 0
149 1 1 2.5000000000000000e-01 -38.8008351437153 -4.806820010233764 -31.080511480911124 0 0 0
150 1 2 -2.5000000000000000e-01 -38.079906524332195 -3.553219109283887 -31.09315444570139 0 0 0
151 1 1 2.5000000000000000e-01 -36.634378953376604 -3.552678427919325 -31.089078742274516 0 0 0
152 1 2 -2.5000000000000000e-01 -35.91307410571781 -4.806918701592309 -31.084637692252073 0 0 0
153 1 1 2.5000000000000000e-01 -38.80094393347992 -2.303778829289442 -31.09241967005661 0 0 0
154 1 2 -2.5000000000000000e-01 -38.0825134922472 -1.0501496656871439 -31.093549387987714 0 0 0
155 1 1 2.5000000000000000e-01 -36.63614758374808 -1.053061094468866 -31.091078544112072 0 0 0
156 1 2 -2.5000000000000000e-01 -35.91269446107898 -2.3011142115601473 -31.088798643271744 0 0 0
157 1 1 2.5000000000000000e-01 -38.80557712723532 0.20172617406448268 -31.09408300069731 0 0 0
158 1 2 -2.5000000000000000e-01 -38.0829356461153 1.451847177493704 -31.085805380237836 0 0 0
159 1 1 2.5000000000000000e-01 -36.636961868285844 1.4521937238405869 -31.0904728099971 0 0 0
160 1 2 -2.5000000000000000e-01 -35.913783375380824 0.20046879743063073 -31.092264970198094 0 0 0
161 1 1 2.5000000000000000e-01 -34.47044824310096 -17.31541298169629 -31.095013986752534 0 0 0
162 1 2 -2.5000000000000000e-01 -33.74633521371194 -16.064567394402495 -31.093114716156393 0 0 0
163 1 1 2.5000000000000000e-01 -32.300161465198116 -16.064560624446628 -31.096618758913817 0 0 0
164 1 2 -2.5000000000000000e-01 -31.58010920867403 -17.315213678740417 -31.08685207177673 0 0 0
165 1 1 2.5000000000000000e-01 -34.47209715401853 -14.81099294535911 -31.090053778820767 0 0 0
166 1 2 -2.5000000000000000e-01 -33.749048376889114 -13.561027198262646 -31.090041467279438 0 0 0
167 1 1 2.5000000000000000e-01 -32.30440805376123 -13.561536547458246 -31.089806058485745 0 0 0
168 1 2 -2.5000000000000000e-01 -31.581084633554276 -14.811431955229999 -31.090998668910018 0 0 0
169 1 1 2.5000000000000000e-01 -34.46681641668018 -12.310095464182712 -31.087440516401067 0 0 0
170 1 2 -2.5000000000000000e-01 -33.741866237073296 -11.058457170038885 -31.079707697218222 0 0 0
171 1 1 2.5000000000000000e-01 -32.30040401910525 -11.055977518392876 -31.085377326480668 0 0 0
172 1 2 -2.5000000000000000e-01 -31.578891713202008 -12.309635911943918 -31.089430294485588 0 0 0
173 1 1 2.5000000000000000e-01 -34.46919995534084 -9.809343028605696 -31.082403730966472 0 0 0
174 1 2 -2.5000000000000000e-01 -33.74674273554648 -8.55829283583246 -31.082738506157142 0 0 0
175 1 1 2.5000000000000000e-01 -32.30115631604273 -8.556144596872013 -31.081253199916453 0 0 0
176 1 2 -2.5000000000000000e-01 -31.57655914998043 -9.806317857541714 -31.08432382085746 0 0 0
177 1 1 2.5000000000000000e-01 -34.4688614048364 -7.307075678845447 -31.088863482646083 0 0 0
178 1 2 -2.5000000000000000e-01 -33.745847045272626 -6.054787137028413 -31.090646963439855 0 0 0
179 1 1 2.5000000000000000e-01 -32.298639850969174 -6.0557893402379825 -31.083999043907497 0 0 0
180 1 2 -2.5000000000000000e-01 -31.577523603454363 -7.306056489370498 -31.08448004204414 0 0 0
181 1 1 2.5000000000000000e-01 -34.46735535749554 -4.805276091948755 -31.089636535130296 0 0 0
182 1 2 -2.5000000000000000e-01 -33.74485459143109 -3.5525563267590172 -31.09538507313371 0 0 0
183 1 1 2.5000000000000000e-01 -32.30014291314272 -3.5517695671842446 -31.09398847111544 0 0 0
184 1 2 -2.5000000000000000e-01 -31.577203516802236 -4.80178379166761 -31.085332001547492 0 0 0
185 1 1 2.5000000000000000e-01 -34.465842916192116 -2.3026653751928947 -31.089516062639643 0 0 0
186 1 2 -2.5000000000000000e-01 -33.7461261545055 -1.0495832023913678 -31.089941010170747 0 0 0
187 1 1 2.5000000000000000e-01 -32.303361596383 -1.0492033464085964 -31.09475714948823 0 0 0
188 1 2 -2.5000000000000000e-01 -31.579571602854713 -2.2998663582686234 -31.095224376158253 0 0 0
189 1 1 2.5000000000000000e-01 -34.46831086747009 0.20266950448791476 -31.0975226457284 0 0 0
190 1 2 -2.5000000000000000e-01 -33.75001696741564 1.4556650804129134 -31.092186813747993 0 0 0
191 1 1 2.5000000000000000e-01 -32.303916584737586 1.4570603796449717 -31.09562701535527 0 0 0
192 1 2 -2.5000000000000000e-01 -31.581916350660613 0.20463696674283938 -31.099564445693 0 0 0
193 1 1 2.5000000000000000e-01 -30.13424809842693 -17.315770141714268 -31.08917085997556 0 0 0
194 1 2 -2.5000000000000000e-01 -29.41443055563044 -16.063380617113193 -31.086157026847207 0 0 0
195 1 1 2.5000000000000000e-01 -27.96897915012459 -16.064631310491627 -31.07723812144098 0 0 0
196 1 2 -2.5000000000000000e-01 -27.243478475323776 -17.313473917548507 -31.071736528467035 0 0 0
197 1 1 2.5000000000000000e-01 -30.136586674055025 -14.813785391207247 -31.094879428683456 0 0 0
198 1 2 -2.5000000000000000e-01 -29.412287382410348 -13.563122091288562 -31.08535547016105 0 0 0
199 1 1 2.5000000000000000e-01 -27.96706851471266 -13.564214719515906 -31.084327301989486 0 0 0
200 1 2 -2.5000000000000000e-01 -27.24627076217412 -14.816416906518665 -31.080685761786786 0 0 0
201 1 1 2.5000000000000000e-01 -30.133262903777638 -12.309112442928829 -31.08497335326094 0 0 0
202 1 2 -2.5000000000000000e-01 -29.411050291470275 -11.059372138967841 -31.087211805958933 0 0 0
203 1 1 2.5000000000000000e-01 -27.96613541231566 -11.06035542847792 -31.086542138876435 0 0 0
204 1 2 -2.5000000000000000e-01 -27.246048729488457 -12.311983872481864 -31.083971876578136 0 0 0
205 1 1 2.5000000000000000e-01 -30.131122416154682 -9.80786498897815 -31.090687419867407 0 0 0
206 1 2 -2.5000000000000000e-01 -29.41014906486562 -8.55557730258414 -31.09329357243843 0 0 0
207 1 1 2.5000000000000000e-01 -27.968604550865493 -8.555936494331398 -31.102158324095544 0 0 0
208 1 2 -2.5000000000000000e-01 -27.247462300806127 -9.806420849477451 -31.0925506946883 0 0 0
209 1 1 2.5000000000000000e-01 -30.13282280246802 -7.304425420422852 -31.08832905770696 0 0 0
210 1 2 -2.5000000000000000e-01 -29.412431954801903 -6.05446811698274 -31.085900866215184 0 0 0
211 1 1 2.5000000000000000e-01 -27.966361424727822 -6.053324535180138 -31.081834414703007 0 0 0
212 1 2 -2.5000000000000000e-01 -27.247081720834444 -7.305894455382788 -31.088242802242558 0 0 0
213 1 1 2.5000000000000000e-01 -30.132447507411623 -4.803762803088439 -31.08613233284681 0 0 0
214 1 2 -2.5000000000000000e-01 -29.40998980951023 -3.5524226831678547 -31.091382853629504 0 0 0
215 1 1 2.5000000000000000e-01 -27.965679634134887 -3.5498250181885282 -31.088892015092245 0 0 0
216 1 2 -2.5000000000000000e-01 -27.243956433959234 -4.802362327077333 -31.087704855094355 0 0 0
217 1 1 2.5000000000000000e-01 -30.132854110649454 -2.2978764192355143 -31.090006850548313 0 0 0
218 1 2 -2.5000000000000000e-01 -29.412191902155733 -1.0455616738022613 -31.080521106632453 0 0 0
219 1 1 2.5000000000000000e-01 -27.967483961884874 -1.0465548647155174 -31.08517975160786 0 0 0
220 1 2 -2.5000000000000000e-01 -27.244418177757424 -2.2979487751013608 -31.08770662800312 0 0 0
221 1 1 2.5000000000000000e-01 -30.135487650562446 0.20401822346929777 -31.086891943090937 0 0 0
222 1 2 -2.5000000000000000e-01 -29.415063220830632 1.4562213594050064 -31.09323905098114 0 0 0
223 1 1 2.5000000000000000e-01 -27.97041335100713 1.4532266206383682 -31.088786051895934 0 0 0
224 1 2 -2.5000000000000000e-01 -27.247287435396743 0.20398704525837985 -31.089025904983494 0 0 0
225 1 1 2.5000000000000000e-01 -25.79914210182237 -17.313801261673813 -31.07499030974489 0 0 0
226 1 2 -2.5000000000000000e-01 -25.075539001068854 -16.063947651176477 -31.080070662641084 0 0 0
227 1 1 2.5000000000000000e-01 -23.63202383064568 -16.063147700710136 -31.082478768441447 0 0 0
228 1 2 -2.5000000000000000e-01 -22.910334769184807 -17.3120690694929 -31.087930736127063 0 0 0
229 1 1 2.5000000000000000e-01 -25.798235583482615 -14.815836496590407 -31.086169372450644 0 0 0
230 1 2 -2.5000000000000000e-01 -25.078274260550916 -13.560458798170963 -31.084097461088206 0 0 0
231 1 1 2.5000000000000000e-01 -23.635913504627815 -13.56112137330502 -31.08294197308324 0 0 0
232 1 2 -2.5000000000000000e-01 -22.911760063060125 -14.811698240146331 -31.090651166309517 0 0 0
233 1 1 2.5000000000000000e-01 -25.80149007826231 -12.311484219081155 -31.08056646591401 0 0 0
234 1 2 -2.5000000000000000e-01 -25.07746138377854 -11.058544604468828 -31.07597284408973 0 0 0
235 1 1 2.5000000000000000e-01 -23.633825774340465 -11.060275745618238 -31.07151326509662 0 0 0
236 1 2 -2.5000000000000000e-01 -22.914896877402224 -12.309654609413826 -31.07979280603303 0 0 0
237 1 1 2.5000000000000000e-01 -25.801874641840435 -9.807931307061299 -31.083979073889804 0 0 0
238 1 2 -2.5000000000000000e-01 -25.07936892982931 -8.558127698251276 -31.077286945801593 0 0 0
239 1 1 2.5000000000000000e-01 -23.634478295619452 -8.557676840918369 -31.07283425664965 0 0 0
240 1 2 -2.5000000000000000e-01 -22.912346518214722 -9.807388538296479 -31.070270598868692 0 0 0
241 1 1 2.5000000000000000e-01 -25.803669108159212 -7.306005003611922 -31.081019004553273 0 0 0
242 1 2 -2.5000000000000000e-01 -25.07855110707916 -6.056376521352945 -31.080024990881828 0 0 0
243 1 1 2.5000000000000000e-01 -23.634810491264354 -6.054481534350941 -31.077800894918298 0 0 0
244 1 2 -2.5000000000000000e-01 -22.911430542172166 -7.307080254152133 -31.076405994247974 0 0 0
245 1 1 2.5000000000000000e-01 -25.800254503468985 -4.803262650314174 -31.08104861904233 0 0 0
246 1 2 -2.5000000000000000e-01 -25.078820237476105 -3.551404922310226 -31.081789487368106 0 0 0
247 1 1 2.5000000000000000e-01 -23.633489515894567 -3.5468273360154896 -31.0828905552927 0 0 0
248 1 2 -2.5000000000000000e-01 -22.912141265665813 -4.800824651094793 -31.078423631393484 0 0 0
249 1 1 2.5000000000000000e-01 -25.799902870619796 -2.29772517605857 -31.08440014675526 0 0 0
250 1 2 -2.5000000000000000e-01 -25.077040289589082 -1.0469203022747138 -31.09456386352674 0 0 0
251 1 1 2.5000000000000000e-01 -23.63414623320549 -1.045535157463739 -31.088582532786436 0 0 0
252 1 2 -2.5000000000000000e-01 -22.909802348081012 -2.295856031505153 -31.08704955817508 0 0 0
253 1 1 2.5000000000000000e-01 -25.801293496914763 0.20679343205310374 -31.091058400077504 0 0 0
254 1 2 -2.5000000000000000e-01 -25.078550276418667 1.455909751916387 -31.09208725444092 0 0 0
255 1 1 2.5000000000000000e-01 -23.63448445715703 1.452964999920816 -31.089658193903738 0 0 0
256 1 2 -2.5000000000000000e-01 -22.91075683651305 0.2016760292989659 -31.08149412670857 0 0 0
257 1 1 2.5000000000000000e-01 -38.80504492100376 2.7019401106048093 -31.08353753464191 0 0 0
258 1 2 -2.5000000000000000e-01 -38.085372135483155 3.956866975753641 -31.085363334960373 0 0 0
259 1 1 2.5000000000000000e-01 -36.63924340229619 3.9547766411118985 -31.08288092369341 0 0 0
260 1 2 -2.5000000000000000e-01 -35.91560174730448 2.704003054826572 -31.083160024826466 0 0 0
261 1 1 2.5000000000000000e-01 -38.809280088492585 5.206452503813615 -31.085494233774625 0 0 0
262 1 2 -2.5000000000000000e-01 -38.08598091199098 6.456176168141695 -31.085557261136906 0 0 0
263 1 1 2.5000000000000000e-01 -36.64125220782422 6.4576147297967665 -31.09214554012213 0 0 0
264 1 2 -2.5000000000000000e-01 -35.918016744807 5.207576225380421 -31.083321613735837 0 0 0
265 1 1 2.5000000000000000e-01 -38.80697395741483 7.708442412964295 -31.089239640558368 0 0 0
266 1 2 -2.5000000000000000e-01 -38.085426403947004 8.96053198297762 -31.094762623095452 0 0 0
267 1 1 2.5000000000000000e-01 -36.64162277509227 8.962399781425333 -31.09356306603201 0 0 0
268 1 2 -2.5000000000000000e-01 -35.918851716181635 7.7108568673338596 -31.09215674331525 0 0 0
269 1 1 2.5000000000000000e-01 -38.807134957227895 10.210137018354594 -31.097822452889613 0 0 0
270 1 2 -2.5000000000000000e-01 -38.08661334820674 11.462399880980463 -31.08657789864172 0 0 0
271 1 1 2.5000000000000000e-01 -36.64221860636538 11.465973040688368 -31.084771427985615 0 0 0
272 1 2 -2.5000000000000000e-01 -35.91717878571348 10.216442433643806 -31.08726650765278 0 0 0
273 1 1 2.5000000000000000e-01 -38.8057205234604 12.713418962539137 -31.07610212897069 0 0 0
274 1 2 -2.5000000000000000e-01 -38.08187286804026 13.96246059469626 -31.06979652739476 0 0 0
275 1 1 2.5000000000000000e-01 -36.63928162504901 13.966710551456814 -31.073600479484032 0 0 0
276 1 2 -2.5000000000000000e-01 -35.91772900892316 12.71501930075987 -31.07999676929428 0 0 0
277 1 1 2.5000000000000000e-01 -38.80575689542387 15.217734003897135 -31.077193821930557 0 0 0
278 1 2 -2.5000000000000000e-01 -38.081738864339236 16.469027203360703 -31.079507748136574 0 0 0
279 1 1 2.5000000000000000e-01 -36.63819643222562 16.469093310290596 -31.08074904404451 0 0 0
280 1 2 -2.5000000000000000e-01 -35.915838275426296 15.216708809866425 -31.07193174952941 0 0 0
281 1 1 2.5000000000000000e-01 -38.8054428015838 17.71962830380042 -31.083546750875414 0 0 0
282 1 2 -2.5000000000000000e-01 -38.08223850859393 18.969855549505972 -31.092241712056424 0 0 0
283 1 1 2.5000000000000000e-01 -36.63904524151572 18.96888388841637 -31.09590575775234 0 0 0
284 1 2 -2.5000000000000000e-01 -35.91565329188968 17.71963992828921 -31.085088257289463 0 0 0
285 1 1 2.5000000000000000e-01 -38.80482783469944 20.219464545848375 -31.09091158735561 0 0 0
286 1 2 -2.5000000000000000e-01 -38.08591680825295 21.472463437050443 -31.096071785711075 0 0 0
287 1 1 2.5000000000000000e-01 -36.639763354419486 21.470494228005684 -31.09828112559302 0 0 0
288 1 2 -2.5000000000000000e-01 -35.91497518883591 20.219909691991077 -31.099226684046496 0 0 0
289 1 1 2.5000000000000000e-01 -34.47179443780194 2.7084137569891595 -31.0816315833087 0 0 0
290 1 2 -2.5000000000000000e-01 -33.75106716333093 3.9593317731320568 -31.084335525587264 0 0 0
291 1 1 2.5000000000000000e-01 -32.30730135462429 3.9577468023057563 -31.096809696510935 0 0 0
292 1 2 -2.5000000000000000e-01 -31.582964341769234 2.706383116573896 -31.093120228019718 0 0 0
293 1 1 2.5000000000000000e-01 -34.47322915242982 5.209575027256861 -31.08390634445694 0 0 0
294 1 2 -2.5000000000000000e-01 -33.74801414894529 6.4596219229965754 -31.092949718559314 0 0 0
295 1 1 2.5000000000000000e-01 -32.30569719754088 6.460605141408934 -31.093108507663082 0 0 0
296 1 2 -2.5000000000000000e-01 -31.58563897461995 5.207646214898411 -31.09083070280047 0 0 0
297 1 1 2.5000000000000000e-01 -34.471231088971926 7.711505563621309 -31.09188771038182 0 0 0
298 1 2 -2.5000000000000000e-01 -33.74863031360501 8.963490970100516 -31.084805078080812 0 0 0
299 1 1 2.5000000000000000e-01 -32.30480160366559 8.962059694977711 -31.089431302652745 0 0 0
300 1 2 -2.5000000000000000e-01 -31.58405026902784 7.711038510535758 -31.08668414600724 0 0 0
301 1 1 2.5000000000000000e-01 -34.47346701165275 10.215145706053846 -31.082139932357858 0 0 0
302 1 2 -2.5000000000000000e-01 -33.75399673727416 11.465366874886428 -31.086254472014986 0 0 0
303 1 1 2.5000000000000000e-01 -32.30459805967084 11.462498746633585 -31.09550211076828 0 0 0
304 1 2 -2.5000000000000000e-01 -31.579227456134074 10.212056112690739 -31.09883352173101 0 0 0
305 1 1 2.5000000000000000e-01 -34.47452151383206 12.715775490746012 -31.08016753450311 0 0 0
306 1 2 -2.5000000000000000e-01 -33.749814204533045 13.966382225480132 -31.083739061770373 0 0 0
307 1 1 2.5000000000000000e-01 -32.30372738688689 13.967741596135639 -31.089910974281075 0 0 0
308 1 2 -2.5000000000000000e-01 -31.58327430413958 12.714510421797492 -31.100059568780566 0 0 0
309 1 1 2.5000000000000000e-01 -34.47148849710555 15.216825522660379 -31.077212286438613 0 0 0
310 1 2 -2.5000000000000000e-01 -33.7525174021864 16.468441472273767 -31.086689250651265 0 0 0